TITLE = "Lorenz output"
VARIABLES = "time" "Ref x" "Ref y" "Ref z" "Ave x" "Ave y" "Ave z" "Var x" "Var y" "Var z" "Err x" "Err y" "Err z"
 ZONE T="ES"  F=POINT, I=         801 , J=1, K=1
   0.000       1.509      -1.531       25.46       2.800      -3.338       24.84       1.845       1.946       1.990       1.667       3.266      0.3842    
  0.5000E-01  0.3672      -1.291       22.22      0.4876      -2.863       21.58       1.192       2.955       2.510      0.1450E-01   2.471      0.4110    
  0.1000     -0.2647      -1.229       19.45     -0.7536      -2.806       19.00       1.424       4.006       2.224      0.2390       2.490      0.1987    
  0.1500     -0.6728      -1.402       17.05      -1.647      -3.238       16.88       2.217       6.102       1.990      0.9491       3.371      0.2989E-01
  0.2000      -1.043      -1.839       14.99      -2.458      -4.227       15.35       3.797       10.31       2.646       2.001       5.704      0.1311    
  0.2500      -1.508      -2.611       13.25      -3.502      -5.776       14.55       6.525       17.36       4.829       3.978       10.02       1.681    
  0.3000      -2.190      -3.867       11.87      -4.816      -7.936       14.64       11.49       28.59       12.46       6.895       16.55       7.647    
  0.3500      -3.245      -5.857       11.01      -6.557      -10.29       16.37       19.29       43.20       30.98       10.97       19.64       28.79    
  0.4000      -4.883      -8.913       11.03      -8.455      -12.15       19.83       28.57       57.40       63.57       12.76       10.50       77.51    
  0.4500      -7.355      -13.26       12.83      -10.01      -12.30       24.75       37.60       70.05       94.54       7.074      0.9303       142.2    
  0.5000      -10.75      -18.22       17.98      -10.51      -10.13       29.46       45.29       84.14       96.08      0.5741E-01   65.39       131.9    
  0.5500      -14.36      -20.59       27.53      -9.624      -6.541       32.33       51.49       84.75       76.55       22.46       197.4       23.05    
  0.6000      -16.05      -15.78       37.70      -7.598      -3.066       32.62       52.24       67.37       54.48       71.48       161.5       25.86    
  0.6500      -13.89      -6.053       40.84      -5.304     -0.8667       31.13       45.08       46.20       44.05       73.70       26.90       94.22    
  0.7000      -9.197      0.6907       37.04      -3.336      0.5627E-01   28.53       33.21       27.68       43.22       34.36      0.4025       72.39    
  0.7500      -4.732       2.877       31.79      -1.961      0.1887       25.67       21.00       18.65       40.17       7.678       7.229       37.46    
  0.8000      -1.679       3.014       27.39      -1.176     -0.7723E-01   22.83       12.87       15.58       34.36      0.2526       9.556       20.81    
  0.8500      0.1208       2.811       23.88     -0.7947     -0.3926       20.30       9.087       15.85       28.97      0.8382       10.26       12.82    
  0.9000       1.181       2.877       20.99     -0.7161     -0.7282       18.27       9.061       19.19       24.60       3.598       13.00       7.412    
  0.9500       1.939       3.377       18.60     -0.8249      -1.137       16.61       12.02       28.41       21.57       7.641       20.38       3.952    
   1.000       2.703       4.392       16.70      -1.039      -1.609       15.52       18.52       45.25       20.83       14.00       36.01       1.391    
   1.050       3.696       6.045       15.39      -1.352      -1.961       15.35       30.72       75.30       28.53       25.49       64.10      0.1730E-02
   1.100       5.115       8.504       14.97      -1.590      -1.908       16.37       50.00       112.6       46.87       44.96       108.4       1.977    
   1.150       7.132       11.83       16.02      -1.590      -1.158       18.60       76.39       154.8       74.29       76.08       168.8       6.676    
   1.200       9.777       15.52       19.49      -1.153      0.1111       21.96       106.0       188.1       96.60       119.5       237.5       6.130    
   1.250       12.60       17.69       25.96     -0.3698       1.397       25.88       130.3       189.3       102.7       168.1       265.4      0.7037E-02
   1.300       14.31       15.52       33.57      0.4805       2.035       29.37       137.8       155.4       95.34       191.3       181.9       17.61    
   1.350       13.51       9.197       37.66       1.037       1.833       31.19       122.9       109.2       78.87       155.7       54.23       41.81    
   1.400       10.45       3.200       36.37       1.222       1.146       31.09       93.73       71.99       63.98       85.22       4.216       27.93    
   1.450       6.874      0.2597       32.46       1.035      0.4454       29.56       64.74       47.42       55.32       34.09      0.3451E-01   8.397    
   1.500       4.079     -0.4179       28.36      0.7177     -0.1720E-01   27.19       41.81       32.52       50.56       11.30      0.1605       1.368    
   1.550       2.343     -0.1949       24.77      0.3858     -0.2677       24.65       26.84       25.05       47.50       3.833      0.5297E-02  0.1430E-01
   1.600       1.435      0.2341       21.68      0.1156     -0.3728       22.18       18.41       22.31       41.80       1.740      0.3683      0.2554    
   1.650       1.056      0.6732       19.00     -0.8035E-01 -0.3979       20.06       15.36       24.07       36.88       1.291       1.147       1.137    
   1.700       1.003       1.141       16.67     -0.2171     -0.3828       18.29       16.19       31.50       33.56       1.488       2.323       2.645    
   1.750       1.178       1.735       14.66     -0.2673     -0.2545       17.14       21.30       46.40       30.99       2.088       3.957       6.174    
   1.800       1.568       2.593       12.97     -0.1933      0.1990E-01   16.69       31.97       70.23       33.37       3.103       6.620       13.86    
   1.850       2.233       3.910       11.64     -0.4803E-01  0.3772       17.28       48.55       104.5       44.18       5.203       12.48       31.87    
   1.900       3.301       5.964       10.82      0.2000      0.7557       19.02       72.34       145.0       59.50       9.616       27.13       67.29    
   1.950       4.977       9.106       10.92      0.4818      0.8666       22.04       99.99       178.2       75.98       20.21       67.89       123.8    
   2.000       7.509       13.55       12.87      0.6154      0.6379       25.73       125.1       186.0       85.44       47.53       166.8       165.5    
   2.050       10.97       18.53       18.29      0.5290      0.2244       29.12       135.4       162.3       79.14       109.0       335.2       117.3    
   2.100       14.58       20.65       28.14      0.3166     -0.1322       31.20       125.3       115.8       64.58       203.4       431.8       9.378    
   2.150       16.10       15.34       38.22      0.1081     -0.3015       31.37       98.90       70.76       55.29       255.7       244.5       46.93    
   2.200       13.70       5.478       40.87      0.2114E-01 -0.5989E-01   29.80       68.09       42.27       50.98       187.0       30.66       122.4    
   2.250       8.902      -1.022       36.79     -0.3095E-01 -0.6895E-01   27.48       42.74       27.11       47.19       79.80      0.9085       86.78    
   2.300       4.468      -3.017       31.53     -0.5101E-02 -0.3876E-01   24.84       26.64       23.07       41.10       20.01       8.871       44.75    
   2.350       1.480      -3.096       27.18     -0.1901E-02 -0.1991E-01   22.43       19.23       22.96       35.62       2.195       9.460       22.52    
   2.400     -0.2749      -2.903       23.72      0.6549E-02  0.1270E-01   20.39       17.15       25.82       32.01      0.7924E-01   8.503       11.02    
   2.450      -1.318      -3.010       20.87      0.5349E-01  0.1487       18.77       19.10       34.20       29.22       1.882       9.976       4.415    
   2.500      -2.087      -3.568       18.53      0.1280      0.3394       17.63       24.66       49.47       28.55       4.906       15.27      0.8161    
   2.550      -2.884      -4.661       16.69      0.2434      0.5228       17.32       35.64       75.64       32.97       9.778       26.87      0.3865    
   2.600      -3.932      -6.415       15.49      0.3926      0.7262       18.05       52.98       107.9       45.09       18.70       50.99       6.563    
   2.650      -5.428      -8.987       15.24      0.5488      0.7400       19.86       75.46       139.2       66.49       35.73       94.61       21.36    
   2.700      -7.530      -12.38       16.58      0.5655      0.3441       22.51       97.67       156.2       87.96       65.54       162.0       35.10    
   2.750      -10.21      -15.92       20.46      0.4031     -0.4931E-02   25.42       113.7       157.5       95.92       112.7       253.4       24.63    
   2.800      -12.92      -17.53       27.20      0.1786     -0.2215       27.93       118.2       141.7       89.37       171.5       299.6      0.5205    
   2.850      -14.28      -14.62       34.42      0.2884E-01 -0.2941       29.42       110.5       111.7       73.63       204.6       205.2       25.06    
   2.900      -13.08      -8.168       37.59     -0.9838E-01 -0.2493       29.71       93.52       81.68       63.37       168.5       62.71       62.12    
   2.950      -9.887      -2.682       35.74     -0.1653     -0.2150       28.91       71.91       56.73       57.47       94.50       6.087       46.67    
   3.000      -6.434     -0.2062       31.76     -0.1906     -0.1108       27.18       52.01       41.52       52.63       38.98      0.9096E-02   20.97    
   3.050      -3.842      0.2665       27.77     -0.1596     -0.4138E-01   25.10       37.03       32.56       52.14       13.56      0.9477E-01   7.115    
   3.100      -2.275     -0.1959E-01   24.28     -0.6515E-01  0.8050E-01   22.98       27.21       27.21       48.65       4.884      0.1002E-01   1.684    
   3.150      -1.484     -0.4784       21.27      0.3109E-02  0.1909       20.98       22.06       29.48       44.07       2.211      0.4479      0.8336E-01
   3.200      -1.191     -0.9657       18.66      0.9046E-01  0.2905       19.40       22.40       40.03       36.08       1.642       1.578      0.5519    
   3.250      -1.217      -1.525       16.40      0.1703      0.3710       18.41       28.62       59.49       32.65       1.926       3.594       4.069    
   3.300      -1.489      -2.273       14.47      0.2290      0.2384       18.37       41.44       82.01       38.55       2.952       6.307       15.18    
   3.350      -2.018      -3.378       12.89      0.2236      0.8317E-01   19.14       57.59       103.1       55.74       5.025       11.98       39.09    
   3.400      -2.891      -5.076       11.76      0.1415     -0.1682       20.65       74.61       124.6       74.32       9.195       24.09       78.98    
   3.450      -4.270      -7.679       11.36     -0.3356E-01 -0.3577       22.70       90.90       141.5       84.85       17.95       53.60       128.7    
   3.500      -6.380      -11.48       12.32     -0.1749     -0.5345       25.06       104.3       147.9       86.97       38.51       119.9       162.2    
   3.550      -9.395      -16.27       15.95     -0.3194     -0.4947       27.34       111.0       138.0       81.41       82.36       249.0       129.8    
   3.600      -13.00      -20.02       23.70     -0.3553     -0.2949       28.90       106.7       114.8       71.87       159.9       389.0       26.98    
   3.650      -15.63      -18.23       34.15     -0.2863     -0.1190       29.34       93.00       85.09       62.56       235.5       328.2       23.17    
   3.700      -14.99      -9.780       40.35     -0.1762     -0.1912E-02   28.63       73.18       59.21       58.94       219.4       95.61       137.2    
   3.750      -11.05      -1.540       38.67     -0.9303E-01  0.8759E-01   27.10       54.26       42.81       56.63       120.1       2.649       133.8    
   3.800      -6.396       2.092       33.63     -0.4547E-01  0.4827E-01   25.11       39.17       35.11       51.49       40.32       4.175       72.64    
   3.850      -2.861       2.752       28.91      0.1763E-02  0.7701E-01   23.16       30.29       33.01       46.20       8.196       7.158       33.00    
   3.900     -0.6864       2.564       25.09      0.6649E-01  0.1744       21.44       26.92       38.07       41.66      0.5668       5.708       13.30    
   3.950      0.5598       2.454       21.96      0.1192      0.3208       20.13       28.50       48.32       37.39      0.1942       4.550       3.328    
   4.000       1.343       2.695       19.33      0.2146      0.4304       19.38       34.90       62.99       39.61       1.274       5.130      0.1906E-02
   4.050       2.004       3.370       17.16      0.2898      0.4508       19.32       45.39       83.30       47.64       2.938       8.525       4.669    
   4.100       2.778       4.572       15.46      0.3024      0.3094       20.03       59.27       102.0       59.83       6.129       18.17       20.91    
   4.150       3.861       6.464       14.38      0.2918      0.1927       21.34       74.45       119.5       73.70       12.74       39.32       48.38    
   4.200       5.446       9.245       14.29      0.2346      0.8868E-01   23.16       88.27       133.3       81.18       27.16       83.84       78.67    
   4.250       7.703       12.94       15.93      0.1741      0.7734E-01   25.17       99.07       137.9       82.64       56.68       165.4       85.35    
   4.300       10.60       16.75       20.38      0.1362      0.7274E-01   27.00       104.3       128.2       75.99       109.5       278.1       43.76    
   4.350       13.46       18.20       27.98      0.1245      0.4531E-01   28.29       100.5       108.2       70.94       177.9       329.6      0.9651E-01
   4.400       14.71       14.42       35.68      0.1248      0.1773       28.60       87.71       82.86       64.74       212.6       203.0       50.06    
   4.450       13.07       7.144       38.38      0.1679      0.2665       28.02       71.39       63.36       57.91       166.4       47.30       107.4    
   4.500       9.437       1.583       35.79      0.2354      0.3996       26.64       55.79       50.88       53.48       84.68       1.401       83.65    
   4.550       5.786     -0.6229       31.43      0.3043      0.4344       25.07       43.83       41.26       54.21       30.05       1.118       40.44    
   4.600       3.166     -0.9164       27.33      0.3504      0.3889       23.39       35.21       36.75       51.09       7.929       1.704       15.54    
   4.650       1.618     -0.6149       23.84      0.3471      0.3187       21.76       31.42       43.69       45.11       1.614      0.8715       4.308    
   4.700      0.8148     -0.2699       20.84      0.3509      0.3702       20.68       33.32       53.72       42.18      0.2152      0.4097      0.2509E-01
   4.750      0.4461     -0.1052E-01   18.23      0.3795      0.4143       20.06       39.18       63.09       47.06      0.4433E-02  0.1804       3.329    
   4.800      0.3089      0.1826       15.96      0.4003      0.3965       19.96       47.07       75.72       54.76      0.8355E-02  0.4577E-01   16.02    
   4.850      0.2969      0.3616       13.97      0.3797      0.3145       20.29       56.27       91.06       64.02      0.6862E-02  0.2219E-02   39.94    
   4.900      0.3670      0.5818       12.23      0.3537      0.2191       21.18       67.36       107.9       72.77      0.1765E-03  0.1315       80.12    
   4.950      0.5158      0.9052       10.72      0.2931      0.1359       22.52       79.43       120.6       81.17      0.4962E-01  0.5919       139.3    
   5.000      0.7701       1.417       9.417      0.2411      0.7732E-01   24.18       89.58       127.3       83.48      0.2799       1.795       218.1    
   5.050       1.189       2.250       8.325      0.1762      0.1751       25.86       96.00       124.4       83.42       1.025       4.306       307.5    
   5.100       1.876       3.621       7.494      0.1401      0.1225       26.99       95.07       107.9       80.93       3.014       12.24       380.0    
   5.150       3.007       5.875       7.097      0.1128      0.1217       27.49       86.18       89.08       75.74       8.376       33.11       415.9    
   5.200       4.854       9.496       7.615      0.8603E-01  0.4348E-01   27.20       73.37       72.21       69.75       22.73       89.35       383.5    
   5.250       7.768       14.86       10.26      0.9046E-01  0.7025E-01   26.30       60.75       60.33       63.24       58.94       218.7       257.4    
   5.300       11.89       20.99       17.35      0.5208E-01 -0.2991E-01   25.10       50.43       53.45       59.19       140.1       441.8       59.96    
   5.350       16.14       22.86       30.22     -0.3545E-02 -0.3972E-01   23.89       43.18       48.83       55.83       260.7       524.5       40.12    
   5.400       17.30       14.35       41.95     -0.5598E-01 -0.1986       22.62       39.50       50.31       53.43       301.3       211.6       373.8    
   5.450       13.40       1.993       42.61     -0.9033E-01 -0.2624       21.64       39.10       54.64       53.38       182.0       5.086       439.6    
   5.500       7.367      -4.184       36.59     -0.1555     -0.2283       20.86       41.29       59.35       57.50       56.59       15.65       247.4    
   5.550       2.475      -5.387       30.93     -0.1663     -0.1523       20.46       45.45       68.19       62.54       6.977       27.40       109.6    
   5.600     -0.5884      -5.204       26.88     -0.1576     -0.9793E-01   20.50       52.02       83.46       65.04      0.1856       26.07       40.64    
   5.650      -2.384      -5.178       23.90     -0.1398     -0.9856E-01   20.99       61.55       100.7       69.37       5.035       25.80       8.453    
   5.700      -3.577      -5.711       21.68     -0.9853E-01 -0.8907E-01   22.12       73.32       115.2       77.43       12.10       31.61      0.1923    
   5.750      -4.643      -6.869       20.19     -0.9890E-01 -0.1466       23.53       84.17       120.0       86.06       20.65       45.20       11.18    
   5.800      -5.876      -8.636       19.57     -0.1307     -0.2082       24.98       90.41       120.0       84.97       33.01       71.02       29.26    
   5.850      -7.429      -10.88       20.18     -0.1481     -0.2580       26.15       92.04       113.8       79.96       53.01       112.7       35.72    
   5.900      -9.276      -13.12       22.39     -0.1901     -0.2134       26.93       88.55       101.9       72.90       82.56       166.5       20.60    
   5.950      -11.10      -14.33       26.25     -0.2106     -0.2316       27.18       80.57       82.92       70.56       118.6       198.8      0.8574    
   6.000      -12.24      -13.31       30.70     -0.2108     -0.2052       26.71       68.76       66.84       66.81       144.7       171.7       15.97    
   6.050      -12.02      -10.04       33.62     -0.1864     -0.3120E-01   25.72       56.43       55.74       65.22       139.9       100.2       62.43    
   6.100      -10.42      -6.296       33.72     -0.6674E-01  0.1585       24.48       47.03       52.20       60.32       107.2       41.66       85.37    
   6.150      -8.210      -3.790       31.66      0.3200E-01  0.1200       23.16       41.16       51.32       55.84       67.93       15.29       72.10    
   6.200      -6.218      -2.803       28.77      0.8104E-01  0.3520E-01   22.12       39.98       55.28       54.63       39.68       8.058       44.34    
   6.250      -4.857      -2.837       25.89      0.3801E-01 -0.8748E-01   21.37       41.80       61.84       52.96       23.96       7.561       20.39    
   6.300      -4.177      -3.441       23.30     -0.3371E-01 -0.1862       20.96       46.92       73.61       54.64       17.17       10.60       5.497    
   6.350      -4.087      -4.434       21.14     -0.1594     -0.3358       21.10       54.72       86.98       60.13       15.43       16.79      0.1805E-02
   6.400      -4.506      -5.824       19.53     -0.2271     -0.4408       21.72       64.37       100.6       66.41       18.30       28.98       4.800    
   6.450      -5.407      -7.700       18.65     -0.3229     -0.4756       22.71       73.64       108.9       74.40       25.85       52.19       16.52    
   6.500      -6.804      -10.09       18.86     -0.3634     -0.3457       23.87       81.26       114.3       79.76       41.48       94.98       25.05    
   6.550      -8.663      -12.74       20.67     -0.3098     -0.1248       25.08       86.65       114.8       79.65       69.78       159.1       19.49    
   6.600      -10.74      -14.74       24.42     -0.1448      0.3022       26.03       87.37       107.3       76.92       112.2       226.2       2.612    
   6.650      -12.37      -14.59       29.49      0.5457E-01  0.4600       26.69       84.38       94.76       72.74       154.4       226.5       7.834    
   6.700      -12.68      -11.54       33.66      0.2071      0.3868       26.77       76.85       80.14       69.61       166.0       142.1       47.45    
   6.750      -11.29      -7.145       34.74      0.2110      0.1479       26.22       66.14       64.99       68.52       132.3       53.18       72.69    
   6.800      -8.891      -3.813       32.94      0.1557      0.5545E-01   25.32       55.29       54.84       65.78       81.83       14.96       58.11    
   6.850      -6.518      -2.312       29.88      0.9324E-01 -0.4529E-01   24.08       46.84       50.09       61.15       43.71       5.139       33.59    
   6.900      -4.789      -2.105       26.71      0.4046E-01 -0.1320E-01   22.88       42.26       51.78       57.26       23.33       4.376       14.68    
   6.950      -3.816      -2.565       23.83      0.2022E-01  0.4414E-01   21.96       40.90       56.88       54.67       14.72       6.806       3.490    
   7.000      -3.490      -3.395       21.35      0.2204E-01  0.3649E-01   21.31       43.49       64.59       55.89       12.34       11.78      0.1505E-02
   7.050      -3.690      -4.565       19.35      0.1205E-01  0.2792E-02   21.09       48.75       75.21       58.80       13.71       20.87       3.055    
   7.100      -4.362      -6.180       17.94     -0.1868E-01 -0.1285       21.23       56.08       87.48       64.77       18.86       36.62       10.85    
   7.150      -5.524      -8.377       17.37     -0.7430E-01 -0.2744       21.79       64.35       97.65       70.96       29.70       65.65       19.51    
   7.200      -7.226      -11.17       18.13     -0.2087     -0.5187       22.70       72.82       107.1       77.87       49.24       113.5       20.89    
   7.250      -9.418      -14.12       20.83     -0.3805     -0.6607       23.70       79.74       109.7       81.26       81.68       181.2       8.197    
   7.300      -11.72      -15.88       25.80     -0.4838     -0.6004       24.78       84.59       113.5       78.74       126.1       233.5       1.048    
   7.350      -13.20      -14.57       31.72     -0.5145     -0.4881       25.93       86.72       110.4       72.81       160.8       198.2       33.57    
   7.400      -12.84      -10.06       35.45     -0.4451     -0.2791       26.60       85.36       96.72       73.06       153.7       95.63       78.34    
   7.450      -10.66      -5.151       35.20     -0.3100     -0.6710E-01   26.71       77.98       80.93       70.68       107.1       25.84       72.00    
   7.500      -7.794      -2.226       32.32     -0.1958      0.9367E-02   26.34       67.72       70.15       64.25       57.73       4.997       35.87    
   7.550      -5.351      -1.276       28.79     -0.1132     -0.4851E-02   25.59       58.69       61.88       61.37       27.43       1.615       10.25    
   7.600      -3.751      -1.393       25.46     -0.8300E-01 -0.1190       24.56       51.11       55.88       59.19       13.45       1.622      0.8186    
   7.650      -2.935      -1.963       22.54     -0.1157     -0.1429       23.58       46.81       56.27       56.84       7.949       3.312       1.099    
   7.700      -2.720      -2.783       20.03     -0.1332     -0.1566       22.66       44.72       58.42       54.84       6.690       6.898       6.912    
   7.750      -2.969      -3.889       17.97     -0.1541     -0.1880       21.95       46.05       65.57       54.45       7.922       13.70       15.82    
   7.800      -3.643      -5.436       16.44     -0.1475     -0.1158       21.63       49.85       73.01       56.04       12.22       28.31       26.91    
   7.850      -4.791      -7.625       15.67     -0.1518     -0.1953       21.62       55.16       82.81       62.23       21.52       55.20       35.44    
   7.900      -6.514      -10.60       16.12     -0.1724     -0.1947       21.99       61.99       91.05       67.93       40.21       108.2       34.43    
   7.950      -8.862      -14.10       18.58     -0.2016     -0.2343       22.67       68.85       97.44       74.92       75.00       192.2       16.74    
   8.000      -11.57      -16.86       23.80     -0.1944     -0.1735       23.49       74.41       99.50       80.97       129.4       278.3      0.9762E-01
   8.050      -13.69      -16.36       30.97     -0.1794     -0.4571E-01   24.26       77.95       99.81       81.89       182.6       266.2       45.11    
   8.100      -13.81      -11.46       36.36     -0.8290E-01  0.6285E-01   24.96       78.63       100.5       78.38       188.5       132.7       129.9    
   8.150      -11.53      -5.273       36.80     -0.4488E-01  0.8676E-01   25.42       77.87       96.00       75.06       132.0       28.72       129.3    
   8.200      -8.151      -1.426       33.66     -0.3269E-01  0.1241       25.71       74.66       83.13       76.29       65.91       2.404       63.20    
   8.250      -5.168     -0.1407       29.66      0.6757E-01  0.1454       25.43       67.22       70.39       76.14       27.42      0.8189E-01   17.85    
   8.300      -3.169     -0.1519       25.97      0.8053E-01  0.1476       24.83       58.82       64.27       70.81       10.56      0.8968E-01   1.310    
   8.350      -2.068     -0.5880       22.77      0.9490E-01  0.9576E-01   24.00       52.97       61.25       67.22       4.680      0.4675       1.511    
   8.400      -1.600      -1.136       20.00      0.1019      0.1436       23.29       49.41       62.92       63.90       2.897       1.636       10.82    
   8.450      -1.550      -1.776       17.61      0.1495      0.2543       22.57       48.94       66.85       62.29       2.887       4.123       24.65    
   8.500      -1.809      -2.616       15.58      0.1615      0.2835       22.21       50.51       71.73       63.12       3.882       8.407       44.00    
   8.550      -2.369      -3.829       13.95      0.2053      0.2754       22.04       54.38       78.60       66.64       6.627       16.85       65.56    
   8.600      -3.307      -5.653       12.83      0.2277      0.1619       22.13       58.41       85.36       69.42       12.50       33.82       86.54    
   8.650      -4.778      -8.381       12.55      0.1741      0.1946E-01   22.44       64.32       92.33       72.80       24.52       70.57       97.77    
   8.700      -6.976      -12.21       13.82      0.1070     -0.1143       23.10       69.45       96.83       75.34       50.17       146.4       86.13    
   8.750      -9.992      -16.68       17.89      0.2592E-02 -0.1339       23.68       73.58       99.94       78.92       99.88       273.7       33.58    
   8.800      -13.33      -19.43       25.78     -0.3753E-01 -0.1374       24.43       76.70       99.06       79.28       176.7       372.2       1.835    
   8.850      -15.34      -16.53       35.18     -0.7428E-01 -0.1034       24.96       77.30       96.91       77.24       233.1       269.8       104.3    
   8.900      -14.14      -8.366       39.65     -0.8012E-01 -0.1972       25.40       75.99       90.33       75.37       197.8       66.73       203.2    
   8.950      -10.25      -1.364       37.38     -0.9576E-01 -0.8907E-01   25.49       71.62       83.34       71.90       103.1       1.626       141.3    
   9.000      -6.019       1.539       32.60     -0.9180E-01 -0.2112E-01   25.29       66.40       75.62       68.50       35.13       2.435       53.40    
   9.050      -2.902       2.006       28.15     -0.3018E-01  0.1793       24.86       61.10       67.82       69.01       8.245       3.335       10.86    
   9.100      -1.014       1.776       24.47      0.9757E-01  0.3367       24.20       55.23       64.74       66.86       1.236       2.072      0.7698E-01
   9.150      0.3833E-01   1.595       21.38      0.2442      0.4737       23.49       51.84       64.39       63.62      0.4238E-01   1.257       4.431    
   9.200      0.6570       1.669       18.74      0.3395      0.4995       22.87       51.05       65.89       63.79      0.1008       1.367       17.00    
   9.250       1.125       2.047       16.48      0.3865      0.4654       22.46       51.53       69.21       64.27      0.5456       2.503       35.76    
   9.300       1.632       2.788       14.58      0.3715      0.2562       22.24       53.56       75.33       65.41       1.590       6.410       58.64    
   9.350       2.330       4.016       13.07      0.3061      0.1349       22.16       57.12       83.37       65.90       4.095       15.07       82.65    
   9.400       3.378       5.954       12.10      0.2368      0.1787       22.54       63.27       92.62       66.73       9.869       33.35       108.9    