TITLE = "Lorenz output"
VARIABLES = "time" "Ref x" "Ref y" "Ref z" "Ave x" "Ave y" "Ave z" "Var x" "Var y" "Var z" "Err x" "Err y" "Err z"
 ZONE T="ES"  F=POINT, I=         801 , J=1, K=1
   0.000       1.509      -1.531       25.46     -0.9007     -0.4890       25.80       1.247      0.7116       1.236       2.410       1.042      0.3376    
  0.5000E-01  0.3672      -1.291       22.22     -0.9518     -0.6427       21.91      0.7351       1.115       1.424       1.319      0.6487      0.3114    
  0.1000     -0.2647      -1.229       19.45     -0.7958      -1.101       20.18      0.5932       1.087       1.320      0.5311      0.1278      0.7299    
  0.1500     -0.6728      -1.402       17.05      -1.062      -1.256       17.11      0.6565       1.183       1.258      0.3895      0.1459      0.5798E-01
  0.2000      -1.043      -1.839       14.99      -1.255      -2.084       14.69      0.7407       1.368       1.219      0.2112      0.2456      0.2933    
  0.2500      -1.508      -2.611       13.25      -1.598      -2.344       13.25      0.9491       1.621       1.310      0.9048E-01  0.2666      0.1617E-02
  0.3000      -2.190      -3.867       11.87      -1.995      -3.421       11.71       1.192       1.955       1.636      0.1948      0.4459      0.1607    
  0.3500      -3.245      -5.857       11.01      -2.987      -5.567       10.71       1.457       2.135       2.175      0.2575      0.2891      0.2923    
  0.4000      -4.883      -8.913       11.03      -4.412      -8.546       10.04       1.613       2.058       2.674      0.4712      0.3673      0.9917    
  0.4500      -7.355      -13.26       12.83      -7.557      -14.57       12.35       1.545       1.734       2.464      0.2019       1.310      0.4734    
  0.5000      -10.75      -18.22       17.98      -11.74      -19.99       17.76       1.176       1.275       1.381      0.9939       1.777      0.2142    
  0.5500      -14.36      -20.59       27.53      -15.79      -21.92       26.44       1.064       2.928       3.323       1.431       1.326       1.087    
  0.6000      -16.05      -15.78       37.70      -16.84      -16.36       33.04       1.884       4.531       5.384      0.7876      0.5855       4.663    
  0.6500      -13.89      -6.053       40.84      -14.93      -7.504       33.86       2.862       5.013       5.931       1.045       1.451       6.983    
  0.7000      -9.197      0.6907       37.04      -10.16     -0.8987       32.41       3.376       4.650       5.183      0.9628       1.589       4.630    
  0.7500      -4.732       2.877       31.79      -5.742       3.185       30.77       3.317       3.993       4.489       1.010      0.3078       1.015    
  0.8000      -1.679       3.014       27.39      -2.023       2.508       28.75       2.924       3.418       4.056      0.3438      0.5062       1.354    
  0.8500      0.1208       2.811       23.88      0.6063E-01   3.201       25.68       2.456       2.941       3.627      0.6018E-01  0.3898       1.804    
  0.9000       1.181       2.877       20.99      0.9900       3.326       22.96       2.114       2.356       2.921      0.1906      0.4487       1.966    
  0.9500       1.939       3.377       18.60       2.011       3.251       20.57       1.681       1.676       2.096      0.7133E-01  0.1266       1.971    
   1.000       2.703       4.392       16.70       3.082       4.606       18.52       1.239       1.300       1.236      0.3787      0.2135       1.824    
   1.050       3.696       6.045       15.39       3.876       6.262       17.58       1.083       2.272       2.152      0.1800      0.2169       2.182    
   1.100       5.115       8.504       14.97       5.397       8.694       16.65       1.543       3.539       3.209      0.2820      0.1903       1.687    
   1.150       7.132       11.83       16.02       7.242       11.06       17.33       2.466       4.853       4.270      0.1095      0.7686       1.316    
   1.200       9.777       15.52       19.49       9.558       13.98       19.71       3.521       5.828       5.479      0.2191       1.545      0.2200    
   1.250       12.60       17.69       25.96       11.40       13.97       24.71       4.312       6.032       6.553       1.193       3.716       1.249    
   1.300       14.31       15.52       33.57       12.25       11.37       30.38       4.606       5.300       7.340       2.056       4.155       3.185    
   1.350       13.51       9.197       37.66       10.96       7.483       34.12       4.157       3.782       7.309       2.553       1.714       3.534    
   1.400       10.45       3.200       36.37       8.508       2.734       33.54       3.142       2.842       5.980       1.945      0.4651       2.833    
   1.450       6.874      0.2597       32.46       5.529      0.1112       31.67       2.136       2.179       3.515       1.345      0.1484      0.7839    
   1.500       4.079     -0.4179       28.36       2.573      -2.494       27.70       1.336       1.308       1.350       1.506       2.076      0.6564    
   1.550       2.343     -0.1949       24.77      0.8016      -2.135       25.06       1.065       2.277       2.847       1.542       1.940      0.2906    
   1.600       1.435      0.2341       21.68     -0.1787     -0.9492       22.60       1.412       2.833       4.045       1.613       1.183      0.9213    
   1.650       1.056      0.6732       19.00     -0.4816      0.5092       21.30       1.820       2.827       4.490       1.537      0.1640       2.301    
   1.700       1.003       1.141       16.67     -0.2133     -0.4510E-01   19.05       1.996       2.626       4.412       1.216       1.186       2.386    
   1.750       1.178       1.735       14.66      0.2611      0.8630       17.34       2.055       2.594       4.241      0.9165      0.8718       2.679    
   1.800       1.568       2.593       12.97      0.6454       1.046       14.71       2.079       2.662       4.161      0.9227       1.547       1.743    
   1.850       2.233       3.910       11.64       1.097       2.333       12.23       2.084       2.575       4.151       1.136       1.577      0.5905    
   1.900       3.301       5.964       10.82       1.967       4.720       9.831       2.008       2.339       3.933       1.334       1.245      0.9865    
   1.950       4.977       9.106       10.92       3.812       8.526       8.006       1.772       1.881       2.956       1.165      0.5807       2.913    
   2.000       7.509       13.55       12.87       6.462       13.37       11.44       1.239       1.332       1.350       1.047      0.1799       1.429    
   2.050       10.97       18.53       18.29       10.01       16.46       18.51       1.085       3.232       3.333      0.9533       2.074      0.2136    
   2.100       14.58       20.65       28.14       12.02       14.18       28.87       2.092       5.143       5.217       2.556       6.470      0.7304    
   2.150       16.10       15.34       38.22       12.12       10.40       36.94       3.366       5.873       5.587       3.977       4.937       1.282    
   2.200       13.70       5.478       40.87       10.59       5.774       38.56       4.095       5.350       4.976       3.109      0.2964       2.305    
   2.250       8.902      -1.022       36.79       7.744       2.717       37.14       4.055       4.159       4.394       1.158       3.739      0.3483    
   2.300       4.468      -3.017       31.53       5.239     -0.7690E-01   32.55       3.490       3.206       3.935      0.7714       2.940       1.022    
   2.350       1.480      -3.096       27.18       2.803      -1.249       27.14       2.786       2.571       3.516       1.324       1.847      0.4160E-01
   2.400     -0.2749      -2.903       23.72      0.9490      -3.139       23.62       2.124       2.078       2.933       1.224      0.2356      0.9162E-01
   2.450      -1.318      -3.010       20.87     -0.8191      -3.895       19.54       1.588       1.659       2.115      0.4993      0.8857       1.330    
   2.500      -2.087      -3.568       18.53      -2.119      -4.252       17.58       1.137       1.269       1.283      0.3160E-01  0.6836      0.9467    
   2.550      -2.884      -4.661       16.69      -3.204      -4.266       15.54       1.073       2.432       2.287      0.3208      0.3949       1.152    
   2.600      -3.932      -6.415       15.49      -4.035      -5.585       14.03       1.689       3.862       3.469      0.1027      0.8303       1.458    
   2.650      -5.428      -8.987       15.24      -5.105      -7.588       12.96       2.750       5.394       4.618      0.3232       1.399       2.282    
   2.700      -7.530      -12.38       16.58      -6.742      -10.39       13.75       3.896       6.332       5.695      0.7878       1.989       2.833    
   2.750      -10.21      -15.92       20.46      -9.014      -13.79       16.64       4.716       6.310       6.671       1.200       2.137       3.818    
   2.800      -12.92      -17.53       27.20      -11.27      -14.21       19.43       4.884       5.232       7.419       1.643       3.321       7.772    
   2.850      -14.28      -14.62       34.42      -12.13      -11.67       23.17       4.292       3.713       7.428       2.149       2.953       11.25    
   2.900      -13.08      -8.168       37.59      -11.53      -9.888       28.25       3.211       2.781       6.130       1.553       1.720       9.344    
   2.950      -9.887      -2.682       35.74      -9.968      -5.741       31.60       2.164       2.165       3.676      0.8095E-01   3.058       4.136    
   3.000      -6.434     -0.2062       31.76      -7.294      -1.699       31.82       1.328       1.332       1.333      0.8596       1.493      0.5880E-01
   3.050      -3.842      0.2665       27.77      -4.385       1.598       30.51       1.082       2.581       3.041      0.5433       1.331       2.747    
   3.100      -2.275     -0.1959E-01   24.28      -1.909       2.598       28.34       1.606       3.558       4.334      0.3657       2.618       4.066    
   3.150      -1.484     -0.4784       21.27     -0.1113       2.175       25.61       2.300       3.818       4.881       1.372       2.653       4.345    
   3.200      -1.191     -0.9657       18.66      0.5702      0.8771       22.34       2.670       3.558       4.904       1.761       1.843       3.683    
   3.250      -1.217      -1.525       16.40      0.4790      0.3165       19.64       2.753       3.269       4.781       1.696       1.841       3.240    
   3.300      -1.489      -2.273       14.47      0.1282      -1.539       16.40       2.663       3.045       4.682       1.617      0.7345       1.931    
   3.350      -2.018      -3.378       12.89     -0.7672      -3.410       13.99       2.472       2.733       4.720       1.251      0.3209E-01   1.100    
   3.400      -2.891      -5.076       11.76      -2.471      -6.516       11.76       2.214       2.333       4.333      0.4200       1.440      0.8123E-02
   3.450      -4.270      -7.679       11.36      -4.892      -9.839       10.91       1.837       1.888       3.103      0.6219       2.160      0.4442    
   3.500      -6.380      -11.48       12.32      -6.935      -10.59       12.75       1.273       1.292       1.392      0.5548      0.8923      0.4269    
   3.550      -9.395      -16.27       15.95      -8.368      -10.25       18.40       1.106       3.284       3.399       1.027       6.026       2.453    
   3.600      -13.00      -20.02       23.70      -9.308      -10.37       26.39       2.174       5.494       5.283       3.691       9.648       2.687    
   3.650      -15.63      -18.23       34.15      -9.530      -9.715       32.64       3.631       6.527       5.837       6.102       8.520       1.511    
   3.700      -14.99      -9.780       40.35      -9.140      -8.413       34.30       4.582       6.208       5.543       5.847       1.367       6.044    
   3.750      -11.05      -1.540       38.67      -8.076      -4.249       35.17       4.734       5.081       5.053       2.976       2.709       3.499    
   3.800      -6.396       2.092       33.63      -5.976     -0.2427       32.89       4.256       3.833       4.663      0.4199       2.334      0.7466    
   3.850      -2.861       2.752       28.91      -3.270      0.8908       30.22       3.430       2.843       4.249      0.4088       1.862       1.319    
   3.900     -0.6864       2.564       25.09      -1.342       2.773       26.30       2.543       2.285       3.424      0.6559      0.2094       1.210    
   3.950      0.5598       2.454       21.96      0.5828       3.457       23.58       1.828       1.826       2.346      0.2297E-01   1.003       1.625    
   4.000       1.343       2.695       19.33       1.959       3.975       20.83       1.220       1.269       1.345      0.6157       1.280       1.494    
   4.050       2.004       3.370       17.16       2.954       4.370       17.60       1.071       2.612       2.485      0.9503       1.000      0.4439    
   4.100       2.778       4.572       15.46       3.552       5.155       15.16       1.764       4.240       3.841      0.7735      0.5825      0.2944    
   4.150       3.861       6.464       14.38       4.188       5.462       13.34       2.946       5.665       4.957      0.3271       1.001       1.042    
   4.200       5.446       9.245       14.29       5.424       7.573       12.23       4.064       6.427       5.899      0.2207E-01   1.672       2.060    
   4.250       7.703       12.94       15.93       6.605       9.906       13.92       4.785       6.193       6.643       1.098       3.031       2.010    
   4.300       10.60       16.75       20.38       8.125       10.65       18.34       4.888       5.099       7.351       2.476       6.097       2.046    
   4.350       13.46       18.20       27.98       9.588       10.71       24.45       4.266       3.560       7.435       3.876       7.493       3.524    
   4.400       14.71       14.42       35.68       9.587       9.075       30.48       3.220       2.623       6.343       5.119       5.349       5.200    
   4.450       13.07       7.144       38.38       8.455       5.531       34.85       2.175       2.119       3.852       4.612       1.614       3.527    
   4.500       9.437       1.583       35.79       6.624       1.798       35.98       1.315       1.333       1.401       2.814      0.2143      0.1898    
   4.550       5.786     -0.6229       31.43       4.234      0.7163       34.55       1.077       2.754       3.404       1.552       1.339       3.120    
   4.600       3.166     -0.9164       27.33       2.838     -0.2642       31.56       1.713       3.808       4.984      0.3281      0.6521       4.228    
   4.650       1.618     -0.6149       23.84       1.756     -0.2092       28.88       2.503       4.161       5.532      0.1390      0.4057       5.043    
   4.700      0.8148     -0.2699       20.84       1.151      0.1317       27.33       2.959       3.987       5.289      0.3367      0.4017       6.490    
   4.750      0.4461     -0.1052E-01   18.23      0.7126      0.2850       24.76       3.133       3.737       5.072      0.2665      0.2955       6.533    
   4.800      0.3089      0.1826       15.96      0.3179     -0.3638       20.69       3.042       3.333       5.016      0.8971E-02  0.5464       4.733    
   4.850      0.2969      0.3616       13.97     -0.1519      -1.061       17.66       2.766       2.821       4.964      0.4488       1.422       3.695    
   4.900      0.3670      0.5818       12.23     -0.6590     -0.8887       14.27       2.367       2.389       4.477       1.026       1.470       2.040    
   4.950      0.5158      0.9052       10.72     -0.1661      0.6482       10.26       1.905       1.899       3.192      0.6820      0.2570      0.4627    
   5.000      0.7701       1.417       9.417      0.8952       3.770       7.930       1.270       1.302       1.400      0.1251       2.353       1.487    
   5.050       1.189       2.250       8.325       2.401       5.231       10.20       1.096       3.188       3.456       1.213       2.980       1.879    
   5.100       1.876       3.621       7.494       3.727       6.030       16.43       2.124       5.342       5.536       1.851       2.408       8.937    
   5.150       3.007       5.875       7.097       5.268       8.406       23.60       3.550       6.569       6.176       2.261       2.530       16.50    
   5.200       4.854       9.496       7.615       7.202       10.67       30.48       4.592       6.431       5.824       2.349       1.174       22.87    
   5.250       7.768       14.86       10.26       8.897       11.72       35.22       4.900       5.441       5.450       1.130       3.141       24.96    
   5.300       11.89       20.99       17.35       10.10       10.69       37.67       4.495       4.018       5.078       1.791       10.29       20.32    
   5.350       16.14       22.86       30.22       9.936       7.874       38.18       3.654       2.903       4.683       6.205       14.99       7.957    
   5.400       17.30       14.35       41.95       8.549       5.167       37.19       2.696       2.308       3.840       8.754       9.182       4.760    
   5.450       13.40       1.993       42.61       6.526       2.168       35.96       1.898       1.809       2.667       6.876      0.1753       6.650    
   5.500       7.367      -4.184       36.59       3.921      -3.195       34.37       1.243       1.299       1.353       3.446      0.9892       2.217    
   5.550       2.475      -5.387       30.93      0.4052      -6.311       31.09       1.106       2.734       2.580       2.070      0.9246      0.1598    
   5.600     -0.5884      -5.204       26.88      -2.399      -7.727       26.30       1.849       4.439       4.006       1.810       2.523      0.5801    
   5.650      -2.384      -5.178       23.90      -4.720      -8.324       21.42       3.041       5.785       5.089       2.337       3.146       2.479    
   5.700      -3.577      -5.711       21.68      -5.882      -7.269       17.16       4.137       6.461       5.740       2.306       1.558       4.520    
   5.750      -4.643      -6.869       20.19      -6.446      -7.809       15.47       4.806       6.015       6.242       1.803      0.9397       4.715    
   5.800      -5.876      -8.636       19.57      -7.084      -8.543       14.15       4.794       4.786       6.709       1.208      0.9244E-01   5.422    
   5.850      -7.429      -10.88       20.18      -8.191      -11.89       15.92       4.114       3.482       6.742      0.7618       1.019       4.259    
   5.900      -9.276      -13.12       22.39      -10.14      -13.98       19.46       3.092       2.772       5.735      0.8594      0.8640       2.932    
   5.950      -11.10      -14.33       26.25      -11.60      -15.25       24.15       2.148       2.111       3.663      0.4975      0.9175       2.105    
   6.000      -12.24      -13.31       30.70      -12.75      -13.44       29.89       1.350       1.332       1.386      0.5093      0.1317      0.8115    
   6.050      -12.02      -10.04       33.62      -12.27      -10.17       33.44       1.096       2.779       3.313      0.2519      0.1296      0.1881    
   6.100      -10.42      -6.296       33.72      -10.42      -5.474       34.10       1.760       4.060       4.938      0.3079E-02  0.8225      0.3823    
   6.150      -8.210      -3.790       31.66      -7.948      -2.914       31.77       2.657       4.612       5.427      0.2618      0.8758      0.1116    
   6.200      -6.218      -2.803       28.77      -6.038      -2.097       29.21       3.279       4.669       5.272      0.1804      0.7063      0.4384    
   6.250      -4.857      -2.837       25.89      -4.120      -1.924       26.03       3.582       4.433       5.143      0.7373      0.9128      0.1416    
   6.300      -4.177      -3.441       23.30      -3.628      -3.974       21.28       3.568       3.830       5.175      0.5495      0.5331       2.025    
   6.350      -4.087      -4.434       21.14      -3.473      -3.256       17.32       3.214       3.027       5.271      0.6143       1.177       3.821    
   6.400      -4.506      -5.824       19.53      -3.505      -4.433       14.86       2.614       2.497       4.762       1.001       1.391       4.668    
   6.450      -5.407      -7.700       18.65      -3.966      -5.070       14.76       1.994       1.941       3.268       1.441       2.630       3.886    
   6.500      -6.804      -10.09       18.86      -4.896      -7.395       16.90       1.329       1.322       1.379       1.907       2.696       1.964    
   6.550      -8.663      -12.74       20.67      -6.071      -7.685       21.86       1.146       3.331       3.301       2.592       5.052       1.198    
   6.600      -10.74      -14.74       24.42      -6.572      -6.119       25.91       2.209       5.500       5.183       4.164       8.619       1.493    
   6.650      -12.37      -14.59       29.49      -5.832      -4.142       29.79       3.680       6.741       5.977       6.540       10.45      0.3040    
   6.700      -12.68      -11.54       33.66      -4.889      -3.211       32.45       4.750       6.640       5.989       7.788       8.325       1.207    
   6.750      -11.29      -7.145       34.74      -4.192      -3.801       33.85       5.057       5.624       5.754       7.100       3.344      0.8909    
   6.800      -8.891      -3.813       32.94      -4.601      -4.988       32.47       4.654       4.192       5.649       4.289       1.176      0.4658    
   6.850      -6.518      -2.312       29.88      -4.475      -4.781       30.68       3.771       3.010       5.221       2.043       2.468      0.8041    
   6.900      -4.789      -2.105       26.71      -4.544      -4.116       26.82       2.762       2.434       4.266      0.2451       2.010      0.1118    
   6.950      -3.816      -2.565       23.83      -4.344      -3.600       23.73       1.935       1.889       2.795      0.5276       1.035      0.9799E-01
   7.000      -3.490      -3.395       21.35      -3.805      -2.600       20.38       1.263       1.310       1.367      0.3149      0.7958      0.9713    
   7.050      -3.690      -4.565       19.35      -3.482      -3.952       17.20       1.101       2.735       2.784      0.2081      0.6135       2.149    
   7.100      -4.362      -6.180       17.94      -4.061      -5.807       15.00       1.833       4.453       4.359      0.3009      0.3728       2.938    
   7.150      -5.524      -8.377       17.37      -5.598      -9.242       13.43       3.014       5.698       5.387      0.7396E-01  0.8655       3.943    
   7.200      -7.226      -11.17       18.13      -7.739      -12.15       14.72       4.072       6.256       5.918      0.5131      0.9761       3.410    
   7.250      -9.418      -14.12       20.83      -9.352      -12.50       15.52       4.737       6.020       6.220      0.6633E-01   1.617       5.314    
   7.300      -11.72      -15.88       25.80      -10.24      -10.71       19.59       4.761       4.954       6.534       1.478       5.174       6.217    
   7.350      -13.20      -14.57       31.72      -9.973      -8.657       23.55       4.179       3.570       6.510       3.223       5.909       8.170    
   7.400      -12.84      -10.06       35.45      -9.412      -7.487       26.80       3.143       2.635       5.526       3.432       2.571       8.651    
   7.450      -10.66      -5.151       35.20      -8.232      -5.475       29.14       2.153       2.157       3.493       2.429      0.3243       6.057    
   7.500      -7.794      -2.226       32.32      -6.327      -1.262       30.37       1.321       1.330       1.358       1.467      0.9641       1.958    
   7.550      -5.351      -1.276       28.79      -3.604       1.145       29.78       1.112       2.882       3.229       1.747       2.420      0.9942    
   7.600      -3.751      -1.393       25.46      -1.430       2.591       29.04       1.865       4.368       4.885       2.321       3.984       3.577    
   7.650      -2.935      -1.963       22.54      0.3832       2.000       26.38       2.877       5.059       5.548       3.318       3.963       3.839    
   7.700      -2.720      -2.783       20.03      0.3077     -0.1553       23.77       3.563       5.014       5.589       3.027       2.628       3.739    
   7.750      -2.969      -3.889       17.97     -0.8024E-01  -2.653       21.81       3.814       4.550       5.266       2.889       1.237       3.840    
   7.800      -3.643      -5.436       16.44      -1.684      -5.921       19.88       3.729       3.889       5.172       1.959      0.4850       3.440    
   7.850      -4.791      -7.625       15.67      -3.731      -8.941       19.95       3.285       3.027       5.144       1.060       1.315       4.277    
   7.900      -6.514      -10.60       16.12      -6.730      -13.38       21.93       2.611       2.526       4.567      0.2165       2.786       5.803    
   7.950      -8.862      -14.10       18.58      -10.10      -15.98       22.79       1.985       2.028       3.143       1.237       1.877       4.205    
   8.000      -11.57      -16.86       23.80      -12.78      -17.09       25.08       1.308       1.343       1.366       1.208      0.2301       1.281    
   8.050      -13.69      -16.36       30.97      -14.34      -15.36       27.31       1.126       3.199       3.257      0.6479      0.9981       3.660    
   8.100      -13.81      -11.46       36.36      -13.65      -11.47       28.37       2.130       5.289       5.063      0.1677      0.9782E-02   7.988    
   8.150      -11.53      -5.273       36.80      -11.94      -7.767       29.34       3.561       6.596       5.795      0.4055       2.494       7.451    
   8.200      -8.151      -1.426       33.66      -9.678      -4.529       29.75       4.665       6.758       5.841       1.527       3.103       3.912    
   8.250      -5.168     -0.1407       29.66      -7.551      -3.959       30.41       5.116       5.888       5.633       2.383       3.818      0.7514    
   8.300      -3.169     -0.1519       25.97      -5.750      -2.548       29.90       4.815       4.396       5.563       2.581       2.396       3.926    
   8.350      -2.068     -0.5880       22.77      -4.214      -2.057       27.83       3.930       3.092       5.286       2.146       1.469       5.056    
   8.400      -1.600      -1.136       20.00      -3.374      -1.797       23.87       2.895       2.489       4.371       1.774      0.6611       3.870    
   8.450      -1.550      -1.776       17.61      -2.736      -1.576       19.62       2.022       2.016       2.870       1.186      0.2004       2.007    
   8.500      -1.809      -2.616       15.58      -2.274      -1.907       16.61       1.270       1.330       1.338      0.4658      0.7087       1.027    
   8.550      -2.369      -3.829       13.95      -2.272      -2.456       14.78       1.085       2.893       2.836      0.9677E-01   1.373      0.8342    
   8.600      -3.307      -5.653       12.83      -2.762      -3.891       14.88       1.894       4.587       4.321      0.5452       1.762       2.046    
   8.650      -4.778      -8.381       12.55      -3.455      -5.356       15.38       3.102       5.767       5.297       1.323       3.025       2.827    
   8.700      -6.976      -12.21       13.82      -4.474      -6.616       17.66       4.115       6.116       5.812       2.503       5.597       3.840    
   8.750      -9.992      -16.68       17.89      -5.992      -9.013       19.97       4.669       5.821       6.083       4.000       7.666       2.084    
   8.800      -13.33      -19.43       25.78      -7.289      -9.929       24.18       4.656       4.743       6.318       6.042       9.501       1.600    
   8.850      -15.34      -16.53       35.18      -8.256      -9.627       26.88       4.061       3.400       6.277       7.085       6.902       8.294    
   8.900      -14.14      -8.366       39.65      -8.396      -7.274       28.48       3.082       2.610       5.392       5.749       1.092       11.17    
   8.950      -10.25      -1.364       37.38      -7.141      -2.987       30.34       2.119       2.029       3.447       3.109       1.622       7.039    
   9.000      -6.019       1.539       32.60      -4.628       1.623       31.37       1.319       1.329       1.359       1.391      0.8356E-01   1.230    
   9.050      -2.902       2.006       28.15      -1.455       4.475       31.12       1.121       2.891       3.204       1.446       2.470       2.964    
   9.100      -1.014       1.776       24.47       1.005       5.193       28.80       1.925       4.533       4.873       2.019       3.417       4.327    
   9.150      0.3833E-01   1.595       21.38       2.827       3.978       25.30       3.044       5.439       5.520       2.789       2.384       3.914    
   9.200      0.6570       1.669       18.74       3.015       2.827       23.11       3.846       5.390       5.551       2.358       1.158       4.369    
   9.250       1.125       2.047       16.48       2.215     -0.7250E-01   19.15       4.142       4.847       5.413       1.090       2.120       2.670    
   9.300       1.632       2.788       14.58       1.227     -0.9321       14.69       3.950       4.025       5.432      0.4053       3.720      0.1106    
   9.350       2.330       4.016       13.07      0.2422     -0.3537       10.70       3.413       3.055       5.350       2.087       4.370       2.373    
   9.400       3.378       5.954       12.10      0.6775       2.714       8.016       2.684       2.382       4.695       2.701       3.240       4.088    